; GENERATED WITH Auto_Martini M3FF for PRO
; Developed by: Kiran Kanekal, Tristan Bereau, and Andrew Abi-Mansour
; updated to Martini 3 force field by Magdalena Szczuka
; supervised by Matthieu Chavent, Pierre Poulain and Paulo C. T. Souza 
; SMILES code : CCC


[moleculetype]
; molname       nrexcl
  PRO           2

[atoms]
; id      type   resnr residue atom    cgnr    charge  mass ;  smiles    ; atom_num
   1       SC1     1   PRO     C01       1        0    54   ;   CCC      ; atoms: C0, C1, C2,          


